                         Program Version 3.0.2 -  RELEASE  -
|  1> ! RIJCOSX RI-B2PLYP D3BJ def2-tzvpp def2-tzvpp/JK def2-tzvpp/C TIGHTSCF
|  2> ! Opt NumFreq
|  3>
|  4> * xyz 0   1
|  5>   H      0.594398   -0.430112   -0.202093
|  6>   H      0.130350    0.936362   -0.671422
|  7>   O      0.575252    0.493751    0.053280
|  8> *
|  9>
| 10>                          ****END OF INPUT****
 Total Charge           Charge          ....    0
 Multiplicity           Mult            ....    1
 Number of Electrons    NEL             ....   10
Dispersion correction            ... done
MP2 TOTAL ENERGY:      -76.418620241 Eh
Dispersion correction           -0.000234288
FINAL SINGLE POINT ENERGY       -76.418854528386
                    ***********************HURRAY********************

CARTESIAN COORDINATES (ANGSTROEM)
---------------------------------
  H      0.594398   -0.430112   -0.202093
  H      0.130350    0.936361   -0.671422
  O      0.575252    0.493751    0.053280

 Multiplicity           Mult            ....    1
 Number of Electrons    NEL             ....   10
 Basis Dimension        Dim             ....   59

ORBITAL ENERGIES
----------------

  NO   OCC          E(Eh)            E(eV)
   0   2.0000     -19.725672      -536.7628
   1   2.0000      -1.153134       -31.3784
   2   2.0000      -0.609371       -16.5818
   3   2.0000      -0.470721       -12.8090
   4   2.0000      -0.396139       -10.7795
   5   0.0000       0.059837         1.6282
   6   0.0000       0.135839         3.6964
   7   0.0000       0.424864        11.5611
   8   0.0000       0.460082        12.5195
   9   0.0000       0.487778        13.2731

Dispersion correction            ... done

MULLIKEN ATOMIC CHARGES
-----------------------
   0 H :    0.208341
   1 H :    0.209919
   2 O :   -0.418260
Sum of atomic charges:   -0.0000000

LOEWDIN ATOMIC CHARGES
----------------------
   0 H :   -0.132932
   1 H :   -0.132726
   2 O :    0.265657

  Mayer bond orders larger than 0.1
B(  0-H ,  2-O ) :   1.0032 B(  1-H ,  2-O ) :   1.0019

MP2 TOTAL ENERGY:      -76.418620245 Eh
Dispersion correction           -0.000234288
FINAL SINGLE POINT ENERGY       -76.418854533174

DIPOLE MOMENT
-------------
                                X             Y             Z
Electronic contribution:      0.07721       0.08615       0.17324
Nuclear contribution   :     -0.35438      -0.40058      -0.81578
                        -----------------------------------------
Total Dipole Moment    :     -0.27718      -0.31443      -0.64254
                        -----------------------------------------
Magnitude (a.u.)       :      0.76717
Magnitude (Debye)      :      1.94999

VIBRATIONAL FREQUENCIES
-----------------------

   0:         0.00 cm**-1
   1:         0.00 cm**-1
   2:         0.00 cm**-1
   3:         0.00 cm**-1
   4:         0.00 cm**-1
   5:         0.00 cm**-1
   6:      1642.76 cm**-1
   7:      3833.93 cm**-1
   8:      3943.88 cm**-1

IR SPECTRUM
-----------

 Mode    freq (cm**-1)   T**2         TX         TY         TZ
-------------------------------------------------------------------
   6:      1642.76   79.038138  ( -3.198323  -3.659200  -7.444402)
   7:      3833.93    9.724157  (  1.200853   1.299990   2.567515)
   8:      3943.88   64.340271  (  2.436956  -7.215281   2.518181)

--------------------------
THERMOCHEMISTRY AT 298.15K
--------------------------

Temperature         ... 298.15 K
Pressure            ... 1.00 atm
Total Mass          ... 18.02 AMU

Throughout the following assumptions are being made:
  (1) The electronic state is orbitally nondegenerate
  (2) There are no thermally accessible electronically excited states
  (3) Hindered rotations indicated by low frequency modes) are not
      treated as such but are treated as vibrations and this may
      case some error
  (4) All equations used are the standard statistical mechanics
      equations for an ideal gas
  (5) All vibrations are strinctly harmonic

------------
INNER ENERGY
------------

The inner energy is: U= E(el) + E(ZPE) + E(vib) + E(rot) + E(trans)
    E(el)   - is the total energy from the electronic structure calculation
              = E(kin-el) + E(nuc-el) + E(el-el) + E(nuc-nuc)
    E(ZPE)  - the the zero temperature vibrational energy from the frequency calculation
    E(vib)  - the the finite temperature correction to E(ZPE) due to population
              of excietd vibrational states
    E(rot)  - is the rotational thermal energy
    E(trans)- is the translational thermal energy

Summary of contributions to the inner energy U:
Electronic energy                ...    -76.41885453 Eh
Zero point energy                ...      0.02146163 Eh      13.47 kcal/mol
Thermal vibrational correction   ...      0.00000270 Eh       0.00 kcal/mol
Thermal rotational correction    ...      0.00141627 Eh       0.89 kcal/mol
Thermal translational correction ...      0.00141627 Eh       0.89 kcal/mol
-----------------------------------------------------------------------
Total thermal energy                    -76.39455766 Eh

Summary of corrections to the electronic energy:
(perhaps to be used in another calculation)
Total thermal correction                  0.00283524 Eh       1.78 kcal/mol
Non-thermal (ZPE) correction              0.02146163 Eh      13.47 kcal/mol
-----------------------------------------------------------------------
Total correction                          0.02429687 Eh      15.25 kcal/mol

--------
ENTHALPY
--------

The enthalpy is H = U + kB*T
                kB is Boltzmann's constant
Total free energy                 ...    -76.39455766 Eh
Thermal Enthalpy correction       ...      0.00094421 Eh       0.59 kcal/mol
-----------------------------------------------------------------------
Total Enthalpy                    ...    -76.39361345 Eh

-------
ENTROPY
-------

The entropy contributions are T*S = T*(S(el)+S(vib)+S(rot)+S(trans)
     S(el)   - electronic entropy
     S(vib)  - vibrational entropy
     S(rot)  - rotational entropy
     S(trans)- translational entropy
The entropies will be listed as mutliplied by the temperature to get
units of energy

Electronic entropy                ...      0.00000000 Eh      0.00 kcal/mol
Vibrational entropy               ...      0.00000304 Eh      0.00 kcal/mol
Rotational entropy                ...      0.00458445 Eh      2.88 kcal/mol
Translational entropy             ...      0.01644380 Eh     10.32 kcal/mol
-----------------------------------------------------------------------
Final entropy term                ...      0.02103130 Eh     13.20 kcal/mol

CAUTION: The rotational entropy is not quite correctly treated here
         because it includes a symmetry number that is not yet correctly
         implemented in ORCA!
For a nonlinear molecule the correct rotational entropy is:
    S(rot) = R*(ln(qrot/sn)+1.5)
    R    = 8.31441 J/mol/K = 1.987191683e-3 kcal/mol/K
    qrot =   85.9781061
    sn is the rotational symmetry number. We have assumed 3 here
       if it is different for your molecule then you should correct
       the printed rotational entropy by manually evaluating the equation
       as given above

For convenience we print out the resulting values for sn=1 - 12:
 sn= 1  qrot/sn=      85.9781 T*S(rot)=     3.53 kcal/mol T*S(tot)=    13.85 kcal/mol
 sn= 2  qrot/sn=      42.9891 T*S(rot)=     3.12 kcal/mol T*S(tot)=    13.44 kcal/mol
 sn= 3  qrot/sn=      28.6594 T*S(rot)=     2.88 kcal/mol T*S(tot)=    13.20 kcal/mol
 sn= 4  qrot/sn=      21.4945 T*S(rot)=     2.71 kcal/mol T*S(tot)=    13.03 kcal/mol
 sn= 5  qrot/sn=      17.1956 T*S(rot)=     2.57 kcal/mol T*S(tot)=    12.89 kcal/mol
 sn= 6  qrot/sn=      14.3297 T*S(rot)=     2.47 kcal/mol T*S(tot)=    12.79 kcal/mol
 sn= 7  qrot/sn=      12.2826 T*S(rot)=     2.37 kcal/mol T*S(tot)=    12.70 kcal/mol
 sn= 8  qrot/sn=      10.7473 T*S(rot)=     2.30 kcal/mol T*S(tot)=    12.62 kcal/mol
 sn= 9  qrot/sn=       9.5531 T*S(rot)=     2.23 kcal/mol T*S(tot)=    12.55 kcal/mol
 sn=10  qrot/sn=       8.5978 T*S(rot)=     2.16 kcal/mol T*S(tot)=    12.48 kcal/mol
 sn=11  qrot/sn=       7.8162 T*S(rot)=     2.11 kcal/mol T*S(tot)=    12.43 kcal/mol
 sn=12  qrot/sn=       7.1648 T*S(rot)=     2.06 kcal/mol T*S(tot)=    12.38 kcal/mol

-------------------
GIBBS FREE ENTHALPY
-------------------

The Gibbs free enthalpy is G = H - T*S

Total enthalpy                    ...    -76.39361345 Eh
Total entropy correction          ...     -0.02103130 Eh    -13.20 kcal/mol
-----------------------------------------------------------------------
Final Gibbs free enthalpy         ...    -76.41464475 Eh

For completeness - the Gibbs free enthalpy minus the electronic energy
G-E(el)                           ...      0.00420979 Eh      2.64 kcal/mol

                             ****ORCA TERMINATED NORMALLY****
TOTAL RUN TIME: 0 days 0 hours 3 minutes 14 seconds 838 msec
