                         Program Version 3.0.2 -  RELEASE  -
|  1> # ======================================================
|  2> #  Orca input file made in Gabedit
|  3> # ======================================================
|  4> ! RIJCOSX RI-B2PLYP D3BJ def2-tzvpp def2-tzvpp/JK def2-tzvpp/C TIGHTSCF
|  5>
|  6> * xyz 0   1
|  7>  H      0.60132965805800    -0.46545175846500    -0.19980981368700
|  8>  H      0.14511594727900     0.93249505063700    -0.64394224108000
|  9>  O      0.56819278419900     0.48990979453300     0.03834110227600
| 10> *
| 11>
| 12>
| 13>                          ****END OF INPUT****

CARTESIAN COORDINATES (ANGSTROEM)
---------------------------------
  H      0.601330   -0.465452   -0.199810
  H      0.145116    0.932495   -0.643942
  O      0.568193    0.489910    0.038341

 Total Charge           Charge          ....    0
 Multiplicity           Mult            ....    1
 Number of Electrons    NEL             ....   10
 Basis Dimension        Dim             ....   59

ORBITAL ENERGIES
----------------

  NO   OCC          E(Eh)            E(eV)
   0   2.0000     -19.722849      -536.6860
   1   2.0000      -1.155635       -31.4464
   2   2.0000      -0.618505       -16.8304
   3   2.0000      -0.465781       -12.6745
   4   2.0000      -0.396061       -10.7774
   5   0.0000       0.060740         1.6528
   6   0.0000       0.136405         3.7118
   7   0.0000       0.427615        11.6360
   8   0.0000       0.457698        12.4546
   9   0.0000       0.488237        13.2856

MULLIKEN ATOMIC CHARGES
-----------------------
   0 H :    0.231368
   1 H :    0.195953
   2 O :   -0.427321
Sum of atomic charges:   -0.0000000

LOEWDIN ATOMIC CHARGES
----------------------
   0 H :   -0.087811
   1 H :   -0.196122
   2 O :    0.283933

  Mayer bond orders larger than 0.1
B(  0-H ,  2-O ) :   1.0004 B(  1-H ,  2-O ) :   1.0356

MP2 TOTAL ENERGY:      -76.415888934 Eh
Dispersion correction           -0.000234271
FINAL SINGLE POINT ENERGY       -76.416123204875

DIPOLE MOMENT
-------------
                                X             Y             Z
Electronic contribution:      0.05554       0.09137       0.13339
Nuclear contribution   :     -0.32457      -0.42681      -0.76613
                        -----------------------------------------
Total Dipole Moment    :     -0.26903      -0.33545      -0.63275
                        -----------------------------------------
Magnitude (a.u.)       :      0.76503
Magnitude (Debye)      :      1.94455

                             ****ORCA TERMINATED NORMALLY****
TOTAL RUN TIME: 0 days 0 hours 0 minutes 11 seconds 10 msec
