                         Program Version 3.0.2 -  RELEASE  -
|  1> # ======================================================
|  2> #  Orca input file made in Gabedit
|  3> # ======================================================
|  4> ! PM3 Opt
|  5> * xyz 0   1
|  6>  H      0.60000000000000    -0.44453900000000    -0.19577200000000
|  7>  H      0.10000000000000     0.97655000000000    -0.71769400000000
|  8>  O      0.60000000000000     0.46799000000000     0.09323100000000
|  9> *
| 10>
| 11>                          ****END OF INPUT****
 Total Charge           Charge          ....    0
 Multiplicity           Mult            ....    1
 Number of Electrons    NEL             ....    8
FINAL SINGLE POINT ENERGY       -11.927268415184
FINAL SINGLE POINT ENERGY       -11.939553717046
FINAL SINGLE POINT ENERGY       -11.940036247139
FINAL SINGLE POINT ENERGY       -11.940123433197
FINAL SINGLE POINT ENERGY       -11.940126290249
                    ***********************HURRAY********************

CARTESIAN COORDINATES (ANGSTROEM)
---------------------------------
  H      0.600297   -0.434838   -0.192123
  H      0.130526    0.947824   -0.667450
  O      0.569177    0.487015    0.039338

 Multiplicity           Mult            ....    1
 Number of Electrons    NEL             ....    8
 Basis Dimension        Dim             ....    6

ORBITAL ENERGIES
----------------

  NO   OCC          E(Eh)            E(eV)
   0   2.0000      -1.353318       -36.8256
   1   2.0000      -0.646080       -17.5807
   2   2.0000      -0.533723       -14.5233
   3   2.0000      -0.452625       -12.3166
   4   0.0000       0.149214         4.0603
   5   0.0000       0.195933         5.3316

MULLIKEN ATOMIC CHARGES
-----------------------
   0 H :    0.187210
   1 H :    0.187202
   2 O :   -0.374412
Sum of atomic charges:   -0.0000000

LOEWDIN ATOMIC CHARGES
----------------------
   0 H :    0.179289
   1 H :    0.179277
   2 O :   -0.358566

  Mayer bond orders larger than 0.1
B(  0-H ,  2-O ) :   0.9623 B(  1-H ,  2-O ) :   0.9623

FINAL SINGLE POINT ENERGY       -11.940126350747

DIPOLE MOMENT
-------------
                                X             Y             Z
Electronic contribution:      0.58910       0.66638       1.35625
Nuclear contribution   :     -0.42540      -0.48125      -0.97938
                        -----------------------------------------
Total Dipole Moment    :      0.16371       0.18513       0.37688
                        -----------------------------------------
Magnitude (a.u.)       :      0.45068
Magnitude (Debye)      :      1.14553

                             ****ORCA TERMINATED NORMALLY****
TOTAL RUN TIME: 0 days 0 hours 0 minutes 0 seconds 915 msec
