                         Program Version 3.0.2 -  RELEASE  -
|  1> # ======================================================
|  2> #  Orca input file made in Gabedit
|  3> # ======================================================
|  4> ! PM3
|  5> * xyz 0   1
|  6>  H      0.60132965805800    -0.46545175846500    -0.19980981368700
|  7>  H      0.14511594727900     0.93249505063700    -0.64394224108000
|  8>  O      0.56819278419900     0.48990979453300     0.03834110227600
|  9> *
| 10>
| 11>                          ****END OF INPUT****

CARTESIAN COORDINATES (ANGSTROEM)
---------------------------------
  H      0.601330   -0.465452   -0.199810
  H      0.145116    0.932495   -0.643942
  O      0.568193    0.489910    0.038341

 Total Charge           Charge          ....    0
 Multiplicity           Mult            ....    1
 Number of Electrons    NEL             ....    8
 Basis Dimension        Dim             ....    6

ORBITAL ENERGIES
----------------

  NO   OCC          E(Eh)            E(eV)
   0   2.0000      -1.354407       -36.8553
   1   2.0000      -0.645553       -17.5664
   2   2.0000      -0.533475       -14.5166
   3   2.0000      -0.452545       -12.3144
   4   0.0000       0.146827         3.9954
   5   0.0000       0.198337         5.3970

MULLIKEN ATOMIC CHARGES
-----------------------
   0 H :    0.184212
   1 H :    0.190461
   2 O :   -0.374673
Sum of atomic charges:   -0.0000000

LOEWDIN ATOMIC CHARGES
----------------------
   0 H :    0.179158
   1 H :    0.179487
   2 O :   -0.358646

  Mayer bond orders larger than 0.1
B(  0-H ,  2-O ) :   0.9634 B(  1-H ,  2-O ) :   0.9611

FINAL SINGLE POINT ENERGY       -11.937919186223

DIPOLE MOMENT
-------------
                                X             Y             Z
Electronic contribution:      0.58505       0.67696       1.35172
Nuclear contribution   :     -0.40703      -0.53525      -0.96078
                        -----------------------------------------
Total Dipole Moment    :      0.17802       0.14171       0.39094
                        -----------------------------------------
Magnitude (a.u.)       :      0.45233
Magnitude (Debye)      :      1.14974

                             ****ORCA TERMINATED NORMALLY****
TOTAL RUN TIME: 0 days 0 hours 0 minutes 0 seconds 257 msec
