 Gaussian 09, Revision D.01,

 ------------------------------------------------------------
 #P B3LYP/DEF2TZVPP SCF(XQC,Tight) Opt(Tight) #Units(Ang,Deg)
 ------------------------------------------------------------

 --------
 Comments
 --------
 Symbolic Z-matrix:
 Charge =  0 Multiplicity = 1

 SCF Done:  E(RB3LYP) =  -76.4666620849     A.U. after   10 cycles
 SCF Done:  E(RB3LYP) =  -76.4666729048     A.U. after    6 cycles
 SCF Done:  E(RB3LYP) =  -76.4666730928     A.U. after    5 cycles
 SCF Done:  E(RB3LYP) =  -76.4666730948     A.U. after    5 cycles
 Optimization completed.
    -- Stationary point found.

 1\1\GINC-ILMFIXE095\FOpt\RB3LYP\def2TZVPP\H2O1\LBARNES\11-Jul-2016\0\\
 #P B3LYP/DEF2TZVPP SCF(XQC,Tight) Opt(Tight) #Units(Ang,Deg)\\Comments
 \\0,1\H,0.5953590669,-0.4327196443,-0.201050563\H,0.1294906103,0.93910
 04663,-0.6722253469\O,0.5751503228,0.493620178,0.0530409099\\Version=E
 M64L-G09RevD.01\State=1-A'\HF=-76.4666731\RMSD=1.459e-09\RMSF=1.175e-0
 6\Dipole=-0.277693,-0.3138584,-0.6392296\Quadrupole=-0.7411645,0.96953
 65,-0.2283721,-0.5106036,0.4931319,-0.3441289\PG=CS [SG(H2O1)]\\@

 Normal termination of Gaussian 09 at Mon Jul 11 11:52:37 2016.
 Gaussian 09:  EM64L-G09RevD.01 24-Apr-2013

 ----------------------------------------------------------------------
 #B3LYP/chkbas SCF(XQC,Tight) Freq iop(7/33=1) #Test Guess(Read) Geom=A
 llCheck
 ----------------------------------------------------------------------

 Structure from the checkpoint file:  "h2oB3LYP.chk"
 --------
 Comments
 --------
 Charge =  0 Multiplicity = 1

                         Standard orientation:
 ---------------------------------------------------------------------
 Center     Atomic      Atomic             Coordinates (Angstroms)
 Number     Number       Type             X           Y           Z
 ---------------------------------------------------------------------
      1          1           0        0.761730   -0.468423    0.000000
      2          1           0       -0.761730   -0.468423    0.000000
      3          8           0        0.000000    0.117106    0.000000
 ---------------------------------------------------------------------

 SCF Done:  E(RB3LYP) =  -76.4666730948     A.U. after    1 cycles

 The electronic state is 1-A'.
 Alpha  occ. eigenvalues --  -19.12694  -1.01419  -0.53467  -0.39185  -0.31695
 Alpha virt. eigenvalues --    0.01381   0.09011   0.35691   0.39759   0.40800
 Alpha virt. eigenvalues --    0.42415   0.53306   0.55763   0.64595   0.67276
 Alpha virt. eigenvalues --    0.76760   0.99888   1.15929   1.22006   1.70494

 Mulliken charges:
               1
     1  H    0.197365
     2  H    0.197365
     3  O   -0.394730
 Sum of Mulliken charges =   0.00000

 Dipole moment (field-independent basis, Debye):
    X=              0.00000002467061    Y=             -1.94279041523363    Z=              0.00000000000000  Tot=              1.94279041523363
 Quadrupole moment (field-independent basis, Debye-Ang):
   XX=             -4.37799092251111   YY=             -6.32055093265508   ZZ=             -7.52423505897894
   XY=              0.00000009940457   XZ=              0.00000000000000   YZ=              0.00000000000000

  Exact polarizability:   8.660   0.000   7.582   0.000   0.000   6.019
 Approx polarizability:  11.002   0.000   9.444   0.000   0.000   6.689

                      1                      2                      3
                     A'                     A'                     A'
 Frequencies --   1632.77070560120900              3810.04179975082000              3913.06942117813300
 Red. masses --      1.08328817459064                 1.04459697573839                 1.08225637376764
 Frc consts  --      1.70154942137812                 8.93425636865539                 9.76372240200691
 IR Inten    --     69.80631630279704                 4.53564940485326                49.03598585934914

 - Thermochemistry -
 -------------------
 Temperature   298.150 Kelvin.  Pressure   1.00000 Atm.
 Atom     1 has atomic number  1 and mass   1.00783

 Molecular mass:    18.01056 amu.
 Principal axes and moments of inertia in atomic units:
                           1         2         3
     Eigenvalues --     2.19161   4.17652   6.36814
           X            1.00000   0.00000   0.00000
           Y            0.00000   1.00000   0.00000
           Z            0.00000   0.00000   1.00000
 This molecule is an asymmetric top.
 Rotational symmetry number  1.
 Rotational temperatures (Kelvin)     39.52056    20.73826    13.60112
 Rotational constants (GHZ):         823.47594   432.11575   283.40178
 Zero-point vibrational energy      55960.6 (Joules/Mol)
                                   13.37490 (Kcal/Mol)
 Vibrational temperatures:   2349.19  5481.79  5630.03
          (Kelvin)

 Zero-point correction=                           0.021314 (Hartree/Particle)
 Thermal correction to Energy=                    0.024150
 Thermal correction to Enthalpy=                  0.025094
 Thermal correction to Gibbs Free Energy=         0.003020
 Sum of electronic and zero-point Energies=            -76.445359
 Sum of electronic and thermal Energies=               -76.442523
 Sum of electronic and thermal Enthalpies=             -76.441579
 Sum of electronic and thermal Free Energies=          -76.463653

                     E (Thermal)             CV                S
                      KCal/Mol        Cal/Mol-Kelvin    Cal/Mol-Kelvin
 Total                   15.154              6.008             46.457
 Electronic               0.000              0.000              0.000
 Translational            0.889              2.981             34.608
 Rotational               0.889              2.981             11.842
 Vibrational             13.377              0.047              0.007

 Optimization completed.
    -- Stationary point found.
 Normal termination of Gaussian 09 at Mon Jul 11 11:52:51 2016.
