 Gaussian 09, Revision D.01,

 ----------------------------------------------------------------------
 #P HF/GEN SCF(XQC,Tight) Opt(Tight) Gfinput IOP(6/7=3) #Units(Ang,Deg)
 ----------------------------------------------------------------------

 --------
 Comments
 --------
 Symbolic Z-matrix:
 Charge =  0 Multiplicity = 1

 SCF Done:  E(RHF) =  -76.0200116098     A.U. after   11 cycles
 SCF Done:  E(RHF) =  -76.0216372150     A.U. after    9 cycles
 SCF Done:  E(RHF) =  -76.0216964056     A.U. after    8 cycles
 SCF Done:  E(RHF) =  -76.0216964670     A.U. after    7 cycles
 Optimization completed.
    -- Stationary point found.
 Normal termination of Gaussian 09 at Thu Jul 21 18:16:44 2016.
 Gaussian 09:  EM64L-G09RevD.01 24-Apr-2013

 ----------------------------------------------------------------------
 # HF/chkbas SCF(XQC,Tight) Freq iop(7/33=1) # Test Guess(Read) Geom=Al
 lCheck
 ----------------------------------------------------------------------

 Structure from the checkpoint file:  "h2oHF.chk"
 --------
 Comments
 --------
 Charge =  0 Multiplicity = 1

                         Standard orientation:
 ---------------------------------------------------------------------
 Center     Atomic      Atomic             Coordinates (Angstroms)
 Number     Number       Type             X           Y           Z
 ---------------------------------------------------------------------
      1          1           0        0.790159   -0.421580    0.000000
      2          1           0       -0.790159   -0.421580    0.000000
      3          8           0        0.000000    0.105395    0.000000
 ---------------------------------------------------------------------

 SCF Done:  E(RHF) =  -76.0216964670     A.U. after    1 cycles

 The electronic state is 1-A'.
 Alpha  occ. eigenvalues --  -20.56185  -1.36373  -0.73954  -0.55784  -0.50764
 Alpha virt. eigenvalues --    0.13792   0.18914   0.52420   0.54074   0.55097
 Alpha virt. eigenvalues --    0.60057   0.73163   1.24244   2.36449   2.40351
 Alpha virt. eigenvalues --    2.66757   2.79331   3.06031   6.12149  46.87376

 Mulliken charges:
               1
     1  H    0.392614
     2  H    0.392614
     3  O   -0.785227
 Sum of Mulliken charges =   0.00000

 Dipole moment (field-independent basis, Debye):
    X=             -0.00000017394158    Y=             -2.53760789682251    Z=              0.00000000000000  Tot=              2.53760789682251
 Quadrupole moment (field-independent basis, Debye-Ang):
   XX=             -3.86458130379357   YY=             -6.59131544376098   ZZ=             -7.54248441163044
   XY=             -0.00000045766563   XZ=              0.00000000000000   YZ=              0.00000000000000

  Exact polarizability:   7.277   0.000   4.708   0.000   0.000   2.996
 Approx polarizability:   5.501   0.000   3.283   0.000   0.000   1.997

                      1                      2                      3
                     A'                     A'                     A'
 Frequencies --   1697.03683473821100              3963.41711453617200              4127.74994306638100
 Red. masses --      1.09201832509350                 1.03660580878080                 1.08974124988627
 Frc consts  --      1.85294543167224                 9.59408064114279                10.93957162987764
 IR Inten    --    144.00034228175270                 0.03375177667825                55.75699884919614
 Raman Activ --      6.54168351427033                86.23927181247144                40.81861130877277

 - Thermochemistry -
 -------------------
 Temperature   298.150 Kelvin.  Pressure   1.00000 Atm.
 Atom     1 has atomic number  1 and mass   1.00783

 Molecular mass:    18.01056 amu.
 Principal axes and moments of inertia in atomic units:
                           1         2         3
     Eigenvalues --     1.77520   4.49410   6.26930
           X            1.00000   0.00000   0.00000
           Y            0.00000   1.00000   0.00000
           Z            0.00000   0.00000   1.00000
 This molecule is an asymmetric top.
 Rotational symmetry number  1.
 Rotational temperatures (Kelvin)     48.79091    19.27280    13.81555
 Rotational constants (GHZ):        1016.63882   401.58051   287.86967
 Zero-point vibrational energy      58546.5 (Joules/Mol)
                                   13.99294 (Kcal/Mol)
 Vibrational temperatures:   2441.65  5702.47  5938.90
          (Kelvin)

 Zero-point correction=                           0.022299 (Hartree/Particle)
 Thermal correction to Energy=                    0.025134
 Thermal correction to Enthalpy=                  0.026078
 Thermal correction to Gibbs Free Energy=         0.004078
 Sum of electronic and zero-point Energies=            -75.999397
 Sum of electronic and thermal Energies=               -75.996563
 Sum of electronic and thermal Enthalpies=             -75.995618
 Sum of electronic and thermal Free Energies=          -76.017619

                     E (Thermal)             CV                S
                      KCal/Mol        Cal/Mol-Kelvin    Cal/Mol-Kelvin
 Total                   15.772              5.999             46.304
 Electronic               0.000              0.000              0.000
 Translational            0.889              2.981             34.608
 Rotational               0.889              2.981             11.690
 Vibrational             13.994              0.037              0.005

 Optimization completed.
    -- Stationary point found.
 Normal termination of Gaussian 09 at Thu Jul 21 18:16:46 2016.
